+ 1.00819 /NodeList/0/DeviceList/0/$ns3::CsmaNetDevice/TxQueue/Enqueue ns3::EthernetHeader ( length/type=0x800, source=00:00:00:00:00:01, destination=ff:ff:ff:ff:ff:ff) ns3::Ipv4Header (tos 0x0 DSCP Default ECN Not-ECT ttl 64 id 0 protocol 17 offset (bytes) 0 flags [none] length: 540 10.1.0.1 > 255.255.255.255) ns3::UdpHeader (length: 520 49153 > 9) Payload (size=512) ns3::EthernetTrailer (fcs=0)
- 1.00819 /NodeList/0/DeviceList/0/$ns3::CsmaNetDevice/TxQueue/Dequeue ns3::EthernetHeader ( length/type=0x800, source=00:00:00:00:00:01, destination=ff:ff:ff:ff:ff:ff) ns3::Ipv4Header (tos 0x0 DSCP Default ECN Not-ECT ttl 64 id 0 protocol 17 offset (bytes) 0 flags [none] length: 540 10.1.0.1 > 255.255.255.255) ns3::UdpHeader (length: 520 49153 > 9) Payload (size=512) ns3::EthernetTrailer (fcs=0)
+ 1.00819 /NodeList/0/DeviceList/1/$ns3::CsmaNetDevice/TxQueue/Enqueue ns3::EthernetHeader ( length/type=0x800, source=00:00:00:00:00:03, destination=ff:ff:ff:ff:ff:ff) ns3::Ipv4Header (tos 0x0 DSCP Default ECN Not-ECT ttl 64 id 0 protocol 17 offset (bytes) 0 flags [none] length: 540 192.168.1.1 > 255.255.255.255) ns3::UdpHeader (length: 520 49153 > 9) Payload (size=512) ns3::EthernetTrailer (fcs=0)
- 1.00819 /NodeList/0/DeviceList/1/$ns3::CsmaNetDevice/TxQueue/Dequeue ns3::EthernetHeader ( length/type=0x800, source=00:00:00:00:00:03, destination=ff:ff:ff:ff:ff:ff) ns3::Ipv4Header (tos 0x0 DSCP Default ECN Not-ECT ttl 64 id 0 protocol 17 offset (bytes) 0 flags [none] length: 540 192.168.1.1 > 255.255.255.255) ns3::UdpHeader (length: 520 49153 > 9) Payload (size=512) ns3::EthernetTrailer (fcs=0)
r 1.01108 /NodeList/1/DeviceList/0/$ns3::CsmaNetDevice/MacRx ns3::EthernetHeader ( length/type=0x800, source=00:00:00:00:00:01, destination=ff:ff:ff:ff:ff:ff) ns3::Ipv4Header (tos 0x0 DSCP Default ECN Not-ECT ttl 64 id 0 protocol 17 offset (bytes) 0 flags [none] length: 540 10.1.0.1 > 255.255.255.255) ns3::UdpHeader (length: 520 49153 > 9) Payload (size=512) ns3::EthernetTrailer (fcs=0)
r 1.01108 /NodeList/2/DeviceList/0/$ns3::CsmaNetDevice/MacRx ns3::EthernetHeader ( length/type=0x800, source=00:00:00:00:00:03, destination=ff:ff:ff:ff:ff:ff) ns3::Ipv4Header (tos 0x0 DSCP Default ECN Not-ECT ttl 64 id 0 protocol 17 offset (bytes) 0 flags [none] length: 540 192.168.1.1 > 255.255.255.255) ns3::UdpHeader (length: 520 49153 > 9) Payload (size=512) ns3::EthernetTrailer (fcs=0)
+ 1.01638 /NodeList/0/DeviceList/0/$ns3::CsmaNetDevice/TxQueue/Enqueue ns3::EthernetHeader ( length/type=0x800, source=00:00:00:00:00:01, destination=ff:ff:ff:ff:ff:ff) ns3::Ipv4Header (tos 0x0 DSCP Default ECN Not-ECT ttl 64 id 1 protocol 17 offset (bytes) 0 flags [none] length: 540 10.1.0.1 > 255.255.255.255) ns3::UdpHeader (length: 520 49153 > 9) Payload (size=512) ns3::EthernetTrailer (fcs=0)
- 1.01638 /NodeList/0/DeviceList/0/$ns3::CsmaNetDevice/TxQueue/Dequeue ns3::EthernetHeader ( length/type=0x800, source=00:00:00:00:00:01, destination=ff:ff:ff:ff:ff:ff) ns3::Ipv4Header (tos 0x0 DSCP Default ECN Not-ECT ttl 64 id 1 protocol 17 offset (bytes) 0 flags [none] length: 540 10.1.0.1 > 255.255.255.255) ns3::UdpHeader (length: 520 49153 > 9) Payload (size=512) ns3::EthernetTrailer (fcs=0)
+ 1.01638 /NodeList/0/DeviceList/1/$ns3::CsmaNetDevice/TxQueue/Enqueue ns3::EthernetHeader ( length/type=0x800, source=00:00:00:00:00:03, destination=ff:ff:ff:ff:ff:ff) ns3::Ipv4Header (tos 0x0 DSCP Default ECN Not-ECT ttl 64 id 1 protocol 17 offset (bytes) 0 flags [none] length: 540 192.168.1.1 > 255.255.255.255) ns3::UdpHeader (length: 520 49153 > 9) Payload (size=512) ns3::EthernetTrailer (fcs=0)
- 1.01638 /NodeList/0/DeviceList/1/$ns3::CsmaNetDevice/TxQueue/Dequeue ns3::EthernetHeader ( length/type=0x800, source=00:00:00:00:00:03, destination=ff:ff:ff:ff:ff:ff) ns3::Ipv4Header (tos 0x0 DSCP Default ECN Not-ECT ttl 64 id 1 protocol 17 offset (bytes) 0 flags [none] length: 540 192.168.1.1 > 255.255.255.255) ns3::UdpHeader (length: 520 49153 > 9) Payload (size=512) ns3::EthernetTrailer (fcs=0)
r 1.01928 /NodeList/1/DeviceList/0/$ns3::CsmaNetDevice/MacRx ns3::EthernetHeader ( length/type=0x800, source=00:00:00:00:00:01, destination=ff:ff:ff:ff:ff:ff) ns3::Ipv4Header (tos 0x0 DSCP Default ECN Not-ECT ttl 64 id 1 protocol 17 offset (bytes) 0 flags [none] length: 540 10.1.0.1 > 255.255.255.255) ns3::UdpHeader (length: 520 49153 > 9) Payload (size=512) ns3::EthernetTrailer (fcs=0)
r 1.01928 /NodeList/2/DeviceList/0/$ns3::CsmaNetDevice/MacRx ns3::EthernetHeader ( length/type=0x800, source=00:00:00:00:00:03, destination=ff:ff:ff:ff:ff:ff) ns3::Ipv4Header (tos 0x0 DSCP Default ECN Not-ECT ttl 64 id 1 protocol 17 offset (bytes) 0 flags [none] length: 540 192.168.1.1 > 255.255.255.255) ns3::UdpHeader (length: 520 49153 > 9) Payload (size=512) ns3::EthernetTrailer (fcs=0)
+ 1.02458 /NodeList/0/DeviceList/0/$ns3::CsmaNetDevice/TxQueue/Enqueue ns3::EthernetHeader ( length/type=0x800, source=00:00:00:00:00:01, destination=ff:ff:ff:ff:ff:ff) ns3::Ipv4Header (tos 0x0 DSCP Default ECN Not-ECT ttl 64 id 2 protocol 17 offset (bytes) 0 flags [none] length: 540 10.1.0.1 > 255.255.255.255) ns3::UdpHeader (length: 520 49153 > 9) Payload (size=512) ns3::EthernetTrailer (fcs=0)
- 1.02458 /NodeList/0/DeviceList/0/$ns3::CsmaNetDevice/TxQueue/Dequeue ns3::EthernetHeader ( length/type=0x800, source=00:00:00:00:00:01, destination=ff:ff:ff:ff:ff:ff) ns3::Ipv4Header (tos 0x0 DSCP Default ECN Not-ECT ttl 64 id 2 protocol 17 offset (bytes) 0 flags [none] length: 540 10.1.0.1 > 255.255.255.255) ns3::UdpHeader (length: 520 49153 > 9) Payload (size=512) ns3::EthernetTrailer (fcs=0)
+ 1.02458 /NodeList/0/DeviceList/1/$ns3::CsmaNetDevice/TxQueue/Enqueue ns3::EthernetHeader ( length/type=0x800, source=00:00:00:00:00:03, destination=ff:ff:ff:ff:ff:ff) ns3::Ipv4Header (tos 0x0 DSCP Default ECN Not-ECT ttl 64 id 2 protocol 17 offset (bytes) 0 flags [none] length: 540 192.168.1.1 > 255.255.255.255) ns3::UdpHeader (length: 520 49153 > 9) Payload (size=512) ns3::EthernetTrailer (fcs=0)
- 1.02458 /NodeList/0/DeviceList/1/$ns3::CsmaNetDevice/TxQueue/Dequeue ns3::EthernetHeader ( length/type=0x800, source=00:00:00:00:00:03, destination=ff:ff:ff:ff:ff:ff) ns3::Ipv4Header (tos 0x0 DSCP Default ECN Not-ECT ttl 64 id 2 protocol 17 offset (bytes) 0 flags [none] length: 540 192.168.1.1 > 255.255.255.255) ns3::UdpHeader (length: 520 49153 > 9) Payload (size=512) ns3::EthernetTrailer (fcs=0)
r 1.02747 /NodeList/1/DeviceList/0/$ns3::CsmaNetDevice/MacRx ns3::EthernetHeader ( length/type=0x800, source=00:00:00:00:00:01, destination=ff:ff:ff:ff:ff:ff) ns3::Ipv4Header (tos 0x0 DSCP Default ECN Not-ECT ttl 64 id 2 protocol 17 offset (bytes) 0 flags [none] length: 540 10.1.0.1 > 255.255.255.255) ns3::UdpHeader (length: 520 49153 > 9) Payload (size=512) ns3::EthernetTrailer (fcs=0)
r 1.02747 /NodeList/2/DeviceList/0/$ns3::CsmaNetDevice/MacRx ns3::EthernetHeader ( length/type=0x800, source=00:00:00:00:00:03, destination=ff:ff:ff:ff:ff:ff) ns3::Ipv4Header (tos 0x0 DSCP Default ECN Not-ECT ttl 64 id 2 protocol 17 offset (bytes) 0 flags [none] length: 540 192.168.1.1 > 255.255.255.255) ns3::UdpHeader (length: 520 49153 > 9) Payload (size=512) ns3::EthernetTrailer (fcs=0)
+ 1.03277 /NodeList/0/DeviceList/0/$ns3::CsmaNetDevice/TxQueue/Enqueue ns3::EthernetHeader ( length/type=0x800, source=00:00:00:00:00:01, destination=ff:ff:ff:ff:ff:ff) ns3::Ipv4Header (tos 0x0 DSCP Default ECN Not-ECT ttl 64 id 3 protocol 17 offset (bytes) 0 flags [none] length: 540 10.1.0.1 > 255.255.255.255) ns3::UdpHeader (length: 520 49153 > 9) Payload (size=512) ns3::EthernetTrailer (fcs=0)
- 1.03277 /NodeList/0/DeviceList/0/$ns3::CsmaNetDevice/TxQueue/Dequeue ns3::EthernetHeader ( length/type=0x800, source=00:00:00:00:00:01, destination=ff:ff:ff:ff:ff:ff) ns3::Ipv4Header (tos 0x0 DSCP Default ECN Not-ECT ttl 64 id 3 protocol 17 offset (bytes) 0 flags [none] length: 540 10.1.0.1 > 255.255.255.255) ns3::UdpHeader (length: 520 49153 > 9) Payload (size=512) ns3::EthernetTrailer (fcs=0)
+ 1.03277 /NodeList/0/DeviceList/1/$ns3::CsmaNetDevice/TxQueue/Enqueue ns3::EthernetHeader ( length/type=0x800, source=00:00:00:00:00:03, destination=ff:ff:ff:ff:ff:ff) ns3::Ipv4Header (tos 0x0 DSCP Default ECN Not-ECT ttl 64 id 3 protocol 17 offset (bytes) 0 flags [none] length: 540 192.168.1.1 > 255.255.255.255) ns3::UdpHeader (length: 520 49153 > 9) Payload (size=512) ns3::EthernetTrailer (fcs=0)
- 1.03277 /NodeList/0/DeviceList/1/$ns3::CsmaNetDevice/TxQueue/Dequeue ns3::EthernetHeader ( length/type=0x800, source=00:00:00:00:00:03, destination=ff:ff:ff:ff:ff:ff) ns3::Ipv4Header (tos 0x0 DSCP Default ECN Not-ECT ttl 64 id 3 protocol 17 offset (bytes) 0 flags [none] length: 540 192.168.1.1 > 255.255.255.255) ns3::UdpHeader (length: 520 49153 > 9) Payload (size=512) ns3::EthernetTrailer (fcs=0)
r 1.03566 /NodeList/1/DeviceList/0/$ns3::CsmaNetDevice/MacRx ns3::EthernetHeader ( length/type=0x800, source=00:00:00:00:00:01, destination=ff:ff:ff:ff:ff:ff) ns3::Ipv4Header (tos 0x0 DSCP Default ECN Not-ECT ttl 64 id 3 protocol 17 offset (bytes) 0 flags [none] length: 540 10.1.0.1 > 255.255.255.255) ns3::UdpHeader (length: 520 49153 > 9) Payload (size=512) ns3::EthernetTrailer (fcs=0)
r 1.03566 /NodeList/2/DeviceList/0/$ns3::CsmaNetDevice/MacRx ns3::EthernetHeader ( length/type=0x800, source=00:00:00:00:00:03, destination=ff:ff:ff:ff:ff:ff) ns3::Ipv4Header (tos 0x0 DSCP Default ECN Not-ECT ttl 64 id 3 protocol 17 offset (bytes) 0 flags [none] length: 540 192.168.1.1 > 255.255.255.255) ns3::UdpHeader (length: 520 49153 > 9) Payload (size=512) ns3::EthernetTrailer (fcs=0)
+ 1.04096 /NodeList/0/DeviceList/0/$ns3::CsmaNetDevice/TxQueue/Enqueue ns3::EthernetHeader ( length/type=0x800, source=00:00:00:00:00:01, destination=ff:ff:ff:ff:ff:ff) ns3::Ipv4Header (tos 0x0 DSCP Default ECN Not-ECT ttl 64 id 4 protocol 17 offset (bytes) 0 flags [none] length: 540 10.1.0.1 > 255.255.255.255) ns3::UdpHeader (length: 520 49153 > 9) Payload (size=512) ns3::EthernetTrailer (fcs=0)
- 1.04096 /NodeList/0/DeviceList/0/$ns3::CsmaNetDevice/TxQueue/Dequeue ns3::EthernetHeader ( length/type=0x800, source=00:00:00:00:00:01, destination=ff:ff:ff:ff:ff:ff) ns3::Ipv4Header (tos 0x0 DSCP Default ECN Not-ECT ttl 64 id 4 protocol 17 offset (bytes) 0 flags [none] length: 540 10.1.0.1 > 255.255.255.255) ns3::UdpHeader (length: 520 49153 > 9) Payload (size=512) ns3::EthernetTrailer (fcs=0)
+ 1.04096 /NodeList/0/DeviceList/1/$ns3::CsmaNetDevice/TxQueue/Enqueue ns3::EthernetHeader ( length/type=0x800, source=00:00:00:00:00:03, destination=ff:ff:ff:ff:ff:ff) ns3::Ipv4Header (tos 0x0 DSCP Default ECN Not-ECT ttl 64 id 4 protocol 17 offset (bytes) 0 flags [none] length: 540 192.168.1.1 > 255.255.255.255) ns3::UdpHeader (length: 520 49153 > 9) Payload (size=512) ns3::EthernetTrailer (fcs=0)
- 1.04096 /NodeList/0/DeviceList/1/$ns3::CsmaNetDevice/TxQueue/Dequeue ns3::EthernetHeader ( length/type=0x800, source=00:00:00:00:00:03, destination=ff:ff:ff:ff:ff:ff) ns3::Ipv4Header (tos 0x0 DSCP Default ECN Not-ECT ttl 64 id 4 protocol 17 offset (bytes) 0 flags [none] length: 540 192.168.1.1 > 255.255.255.255) ns3::UdpHeader (length: 520 49153 > 9) Payload (size=512) ns3::EthernetTrailer (fcs=0)
r 1.04385 /NodeList/1/DeviceList/0/$ns3::CsmaNetDevice/MacRx ns3::EthernetHeader ( length/type=0x800, source=00:00:00:00:00:01, destination=ff:ff:ff:ff:ff:ff) ns3::Ipv4Header (tos 0x0 DSCP Default ECN Not-ECT ttl 64 id 4 protocol 17 offset (bytes) 0 flags [none] length: 540 10.1.0.1 > 255.255.255.255) ns3::UdpHeader (length: 520 49153 > 9) Payload (size=512) ns3::EthernetTrailer (fcs=0)
r 1.04385 /NodeList/2/DeviceList/0/$ns3::CsmaNetDevice/MacRx ns3::EthernetHeader ( length/type=0x800, source=00:00:00:00:00:03, destination=ff:ff:ff:ff:ff:ff) ns3::Ipv4Header (tos 0x0 DSCP Default ECN Not-ECT ttl 64 id 4 protocol 17 offset (bytes) 0 flags [none] length: 540 192.168.1.1 > 255.255.255.255) ns3::UdpHeader (length: 520 49153 > 9) Payload (size=512) ns3::EthernetTrailer (fcs=0)
+ 1.04915 /NodeList/0/DeviceList/0/$ns3::CsmaNetDevice/TxQueue/Enqueue ns3::EthernetHeader ( length/type=0x800, source=00:00:00:00:00:01, destination=ff:ff:ff:ff:ff:ff) ns3::Ipv4Header (tos 0x0 DSCP Default ECN Not-ECT ttl 64 id 5 protocol 17 offset (bytes) 0 flags [none] length: 540 10.1.0.1 > 255.255.255.255) ns3::UdpHeader (length: 520 49153 > 9) Payload (size=512) ns3::EthernetTrailer (fcs=0)
- 1.04915 /NodeList/0/DeviceList/0/$ns3::CsmaNetDevice/TxQueue/Dequeue ns3::EthernetHeader ( length/type=0x800, source=00:00:00:00:00:01, destination=ff:ff:ff:ff:ff:ff) ns3::Ipv4Header (tos 0x0 DSCP Default ECN Not-ECT ttl 64 id 5 protocol 17 offset (bytes) 0 flags [none] length: 540 10.1.0.1 > 255.255.255.255) ns3::UdpHeader (length: 520 49153 > 9) Payload (size=512) ns3::EthernetTrailer (fcs=0)
+ 1.04915 /NodeList/0/DeviceList/1/$ns3::CsmaNetDevice/TxQueue/Enqueue ns3::EthernetHeader ( length/type=0x800, source=00:00:00:00:00:03, destination=ff:ff:ff:ff:ff:ff) ns3::Ipv4Header (tos 0x0 DSCP Default ECN Not-ECT ttl 64 id 5 protocol 17 offset (bytes) 0 flags [none] length: 540 192.168.1.1 > 255.255.255.255) ns3::UdpHeader (length: 520 49153 > 9) Payload (size=512) ns3::EthernetTrailer (fcs=0)
- 1.04915 /NodeList/0/DeviceList/1/$ns3::CsmaNetDevice/TxQueue/Dequeue ns3::EthernetHeader ( length/type=0x800, source=00:00:00:00:00:03, destination=ff:ff:ff:ff:ff:ff) ns3::Ipv4Header (tos 0x0 DSCP Default ECN Not-ECT ttl 64 id 5 protocol 17 offset (bytes) 0 flags [none] length: 540 192.168.1.1 > 255.255.255.255) ns3::UdpHeader (length: 520 49153 > 9) Payload (size=512) ns3::EthernetTrailer (fcs=0)
r 1.05204 /NodeList/1/DeviceList/0/$ns3::CsmaNetDevice/MacRx ns3::EthernetHeader ( length/type=0x800, source=00:00:00:00:00:01, destination=ff:ff:ff:ff:ff:ff) ns3::Ipv4Header (tos 0x0 DSCP Default ECN Not-ECT ttl 64 id 5 protocol 17 offset (bytes) 0 flags [none] length: 540 10.1.0.1 > 255.255.255.255) ns3::UdpHeader (length: 520 49153 > 9) Payload (size=512) ns3::EthernetTrailer (fcs=0)
r 1.05204 /NodeList/2/DeviceList/0/$ns3::CsmaNetDevice/MacRx ns3::EthernetHeader ( length/type=0x800, source=00:00:00:00:00:03, destination=ff:ff:ff:ff:ff:ff) ns3::Ipv4Header (tos 0x0 DSCP Default ECN Not-ECT ttl 64 id 5 protocol 17 offset (bytes) 0 flags [none] length: 540 192.168.1.1 > 255.255.255.255) ns3::UdpHeader (length: 520 49153 > 9) Payload (size=512) ns3::EthernetTrailer (fcs=0)
+ 1.05734 /NodeList/0/DeviceList/0/$ns3::CsmaNetDevice/TxQueue/Enqueue ns3::EthernetHeader ( length/type=0x800, source=00:00:00:00:00:01, destination=ff:ff:ff:ff:ff:ff) ns3::Ipv4Header (tos 0x0 DSCP Default ECN Not-ECT ttl 64 id 6 protocol 17 offset (bytes) 0 flags [none] length: 540 10.1.0.1 > 255.255.255.255) ns3::UdpHeader (length: 520 49153 > 9) Payload (size=512) ns3::EthernetTrailer (fcs=0)
- 1.05734 /NodeList/0/DeviceList/0/$ns3::CsmaNetDevice/TxQueue/Dequeue ns3::EthernetHeader ( length/type=0x800, source=00:00:00:00:00:01, destination=ff:ff:ff:ff:ff:ff) ns3::Ipv4Header (tos 0x0 DSCP Default ECN Not-ECT ttl 64 id 6 protocol 17 offset (bytes) 0 flags [none] length: 540 10.1.0.1 > 255.255.255.255) ns3::UdpHeader (length: 520 49153 > 9) Payload (size=512) ns3::EthernetTrailer (fcs=0)
+ 1.05734 /NodeList/0/DeviceList/1/$ns3::CsmaNetDevice/TxQueue/Enqueue ns3::EthernetHeader ( length/type=0x800, source=00:00:00:00:00:03, destination=ff:ff:ff:ff:ff:ff) ns3::Ipv4Header (tos 0x0 DSCP Default ECN Not-ECT ttl 64 id 6 protocol 17 offset (bytes) 0 flags [none] length: 540 192.168.1.1 > 255.255.255.255) ns3::UdpHeader (length: 520 49153 > 9) Payload (size=512) ns3::EthernetTrailer (fcs=0)
- 1.05734 /NodeList/0/DeviceList/1/$ns3::CsmaNetDevice/TxQueue/Dequeue ns3::EthernetHeader ( length/type=0x800, source=00:00:00:00:00:03, destination=ff:ff:ff:ff:ff:ff) ns3::Ipv4Header (tos 0x0 DSCP Default ECN Not-ECT ttl 64 id 6 protocol 17 offset (bytes) 0 flags [none] length: 540 192.168.1.1 > 255.255.255.255) ns3::UdpHeader (length: 520 49153 > 9) Payload (size=512) ns3::EthernetTrailer (fcs=0)
r 1.06024 /NodeList/1/DeviceList/0/$ns3::CsmaNetDevice/MacRx ns3::EthernetHeader ( length/type=0x800, source=00:00:00:00:00:01, destination=ff:ff:ff:ff:ff:ff) ns3::Ipv4Header (tos 0x0 DSCP Default ECN Not-ECT ttl 64 id 6 protocol 17 offset (bytes) 0 flags [none] length: 540 10.1.0.1 > 255.255.255.255) ns3::UdpHeader (length: 520 49153 > 9) Payload (size=512) ns3::EthernetTrailer (fcs=0)
r 1.06024 /NodeList/2/DeviceList/0/$ns3::CsmaNetDevice/MacRx ns3::EthernetHeader ( length/type=0x800, source=00:00:00:00:00:03, destination=ff:ff:ff:ff:ff:ff) ns3::Ipv4Header (tos 0x0 DSCP Default ECN Not-ECT ttl 64 id 6 protocol 17 offset (bytes) 0 flags [none] length: 540 192.168.1.1 > 255.255.255.255) ns3::UdpHeader (length: 520 49153 > 9) Payload (size=512) ns3::EthernetTrailer (fcs=0)
+ 1.06554 /NodeList/0/DeviceList/0/$ns3::CsmaNetDevice/TxQueue/Enqueue ns3::EthernetHeader ( length/type=0x800, source=00:00:00:00:00:01, destination=ff:ff:ff:ff:ff:ff) ns3::Ipv4Header (tos 0x0 DSCP Default ECN Not-ECT ttl 64 id 7 protocol 17 offset (bytes) 0 flags [none] length: 540 10.1.0.1 > 255.255.255.255) ns3::UdpHeader (length: 520 49153 > 9) Payload (size=512) ns3::EthernetTrailer (fcs=0)
- 1.06554 /NodeList/0/DeviceList/0/$ns3::CsmaNetDevice/TxQueue/Dequeue ns3::EthernetHeader ( length/type=0x800, source=00:00:00:00:00:01, destination=ff:ff:ff:ff:ff:ff) ns3::Ipv4Header (tos 0x0 DSCP Default ECN Not-ECT ttl 64 id 7 protocol 17 offset (bytes) 0 flags [none] length: 540 10.1.0.1 > 255.255.255.255) ns3::UdpHeader (length: 520 49153 > 9) Payload (size=512) ns3::EthernetTrailer (fcs=0)
+ 1.06554 /NodeList/0/DeviceList/1/$ns3::CsmaNetDevice/TxQueue/Enqueue ns3::EthernetHeader ( length/type=0x800, source=00:00:00:00:00:03, destination=ff:ff:ff:ff:ff:ff) ns3::Ipv4Header (tos 0x0 DSCP Default ECN Not-ECT ttl 64 id 7 protocol 17 offset (bytes) 0 flags [none] length: 540 192.168.1.1 > 255.255.255.255) ns3::UdpHeader (length: 520 49153 > 9) Payload (size=512) ns3::EthernetTrailer (fcs=0)
- 1.06554 /NodeList/0/DeviceList/1/$ns3::CsmaNetDevice/TxQueue/Dequeue ns3::EthernetHeader ( length/type=0x800, source=00:00:00:00:00:03, destination=ff:ff:ff:ff:ff:ff) ns3::Ipv4Header (tos 0x0 DSCP Default ECN Not-ECT ttl 64 id 7 protocol 17 offset (bytes) 0 flags [none] length: 540 192.168.1.1 > 255.255.255.255) ns3::UdpHeader (length: 520 49153 > 9) Payload (size=512) ns3::EthernetTrailer (fcs=0)
r 1.06843 /NodeList/1/DeviceList/0/$ns3::CsmaNetDevice/MacRx ns3::EthernetHeader ( length/type=0x800, source=00:00:00:00:00:01, destination=ff:ff:ff:ff:ff:ff) ns3::Ipv4Header (tos 0x0 DSCP Default ECN Not-ECT ttl 64 id 7 protocol 17 offset (bytes) 0 flags [none] length: 540 10.1.0.1 > 255.255.255.255) ns3::UdpHeader (length: 520 49153 > 9) Payload (size=512) ns3::EthernetTrailer (fcs=0)
r 1.06843 /NodeList/2/DeviceList/0/$ns3::CsmaNetDevice/MacRx ns3::EthernetHeader ( length/type=0x800, source=00:00:00:00:00:03, destination=ff:ff:ff:ff:ff:ff) ns3::Ipv4Header (tos 0x0 DSCP Default ECN Not-ECT ttl 64 id 7 protocol 17 offset (bytes) 0 flags [none] length: 540 192.168.1.1 > 255.255.255.255) ns3::UdpHeader (length: 520 49153 > 9) Payload (size=512) ns3::EthernetTrailer (fcs=0)
+ 1.07373 /NodeList/0/DeviceList/0/$ns3::CsmaNetDevice/TxQueue/Enqueue ns3::EthernetHeader ( length/type=0x800, source=00:00:00:00:00:01, destination=ff:ff:ff:ff:ff:ff) ns3::Ipv4Header (tos 0x0 DSCP Default ECN Not-ECT ttl 64 id 8 protocol 17 offset (bytes) 0 flags [none] length: 540 10.1.0.1 > 255.255.255.255) ns3::UdpHeader (length: 520 49153 > 9) Payload (size=512) ns3::EthernetTrailer (fcs=0)
- 1.07373 /NodeList/0/DeviceList/0/$ns3::CsmaNetDevice/TxQueue/Dequeue ns3::EthernetHeader ( length/type=0x800, source=00:00:00:00:00:01, destination=ff:ff:ff:ff:ff:ff) ns3::Ipv4Header (tos 0x0 DSCP Default ECN Not-ECT ttl 64 id 8 protocol 17 offset (bytes) 0 flags [none] length: 540 10.1.0.1 > 255.255.255.255) ns3::UdpHeader (length: 520 49153 > 9) Payload (size=512) ns3::EthernetTrailer (fcs=0)
+ 1.07373 /NodeList/0/DeviceList/1/$ns3::CsmaNetDevice/TxQueue/Enqueue ns3::EthernetHeader ( length/type=0x800, source=00:00:00:00:00:03, destination=ff:ff:ff:ff:ff:ff) ns3::Ipv4Header (tos 0x0 DSCP Default ECN Not-ECT ttl 64 id 8 protocol 17 offset (bytes) 0 flags [none] length: 540 192.168.1.1 > 255.255.255.255) ns3::UdpHeader (length: 520 49153 > 9) Payload (size=512) ns3::EthernetTrailer (fcs=0)
- 1.07373 /NodeList/0/DeviceList/1/$ns3::CsmaNetDevice/TxQueue/Dequeue ns3::EthernetHeader ( length/type=0x800, source=00:00:00:00:00:03, destination=ff:ff:ff:ff:ff:ff) ns3::Ipv4Header (tos 0x0 DSCP Default ECN Not-ECT ttl 64 id 8 protocol 17 offset (bytes) 0 flags [none] length: 540 192.168.1.1 > 255.255.255.255) ns3::UdpHeader (length: 520 49153 > 9) Payload (size=512) ns3::EthernetTrailer (fcs=0)
r 1.07662 /NodeList/1/DeviceList/0/$ns3::CsmaNetDevice/MacRx ns3::EthernetHeader ( length/type=0x800, source=00:00:00:00:00:01, destination=ff:ff:ff:ff:ff:ff) ns3::Ipv4Header (tos 0x0 DSCP Default ECN Not-ECT ttl 64 id 8 protocol 17 offset (bytes) 0 flags [none] length: 540 10.1.0.1 > 255.255.255.255) ns3::UdpHeader (length: 520 49153 > 9) Payload (size=512) ns3::EthernetTrailer (fcs=0)
r 1.07662 /NodeList/2/DeviceList/0/$ns3::CsmaNetDevice/MacRx ns3::EthernetHeader ( length/type=0x800, source=00:00:00:00:00:03, destination=ff:ff:ff:ff:ff:ff) ns3::Ipv4Header (tos 0x0 DSCP Default ECN Not-ECT ttl 64 id 8 protocol 17 offset (bytes) 0 flags [none] length: 540 192.168.1.1 > 255.255.255.255) ns3::UdpHeader (length: 520 49153 > 9) Payload (size=512) ns3::EthernetTrailer (fcs=0)
+ 1.08192 /NodeList/0/DeviceList/0/$ns3::CsmaNetDevice/TxQueue/Enqueue ns3::EthernetHeader ( length/type=0x800, source=00:00:00:00:00:01, destination=ff:ff:ff:ff:ff:ff) ns3::Ipv4Header (tos 0x0 DSCP Default ECN Not-ECT ttl 64 id 9 protocol 17 offset (bytes) 0 flags [none] length: 540 10.1.0.1 > 255.255.255.255) ns3::UdpHeader (length: 520 49153 > 9) Payload (size=512) ns3::EthernetTrailer (fcs=0)
- 1.08192 /NodeList/0/DeviceList/0/$ns3::CsmaNetDevice/TxQueue/Dequeue ns3::EthernetHeader ( length/type=0x800, source=00:00:00:00:00:01, destination=ff:ff:ff:ff:ff:ff) ns3::Ipv4Header (tos 0x0 DSCP Default ECN Not-ECT ttl 64 id 9 protocol 17 offset (bytes) 0 flags [none] length: 540 10.1.0.1 > 255.255.255.255) ns3::UdpHeader (length: 520 49153 > 9) Payload (size=512) ns3::EthernetTrailer (fcs=0)
+ 1.08192 /NodeList/0/DeviceList/1/$ns3::CsmaNetDevice/TxQueue/Enqueue ns3::EthernetHeader ( length/type=0x800, source=00:00:00:00:00:03, destination=ff:ff:ff:ff:ff:ff) ns3::Ipv4Header (tos 0x0 DSCP Default ECN Not-ECT ttl 64 id 9 protocol 17 offset (bytes) 0 flags [none] length: 540 192.168.1.1 > 255.255.255.255) ns3::UdpHeader (length: 520 49153 > 9) Payload (size=512) ns3::EthernetTrailer (fcs=0)
- 1.08192 /NodeList/0/DeviceList/1/$ns3::CsmaNetDevice/TxQueue/Dequeue ns3::EthernetHeader ( length/type=0x800, source=00:00:00:00:00:03, destination=ff:ff:ff:ff:ff:ff) ns3::Ipv4Header (tos 0x0 DSCP Default ECN Not-ECT ttl 64 id 9 protocol 17 offset (bytes) 0 flags [none] length: 540 192.168.1.1 > 255.255.255.255) ns3::UdpHeader (length: 520 49153 > 9) Payload (size=512) ns3::EthernetTrailer (fcs=0)
r 1.08481 /NodeList/1/DeviceList/0/$ns3::CsmaNetDevice/MacRx ns3::EthernetHeader ( length/type=0x800, source=00:00:00:00:00:01, destination=ff:ff:ff:ff:ff:ff) ns3::Ipv4Header (tos 0x0 DSCP Default ECN Not-ECT ttl 64 id 9 protocol 17 offset (bytes) 0 flags [none] length: 540 10.1.0.1 > 255.255.255.255) ns3::UdpHeader (length: 520 49153 > 9) Payload (size=512) ns3::EthernetTrailer (fcs=0)
r 1.08481 /NodeList/2/DeviceList/0/$ns3::CsmaNetDevice/MacRx ns3::EthernetHeader ( length/type=0x800, source=00:00:00:00:00:03, destination=ff:ff:ff:ff:ff:ff) ns3::Ipv4Header (tos 0x0 DSCP Default ECN Not-ECT ttl 64 id 9 protocol 17 offset (bytes) 0 flags [none] length: 540 192.168.1.1 > 255.255.255.255) ns3::UdpHeader (length: 520 49153 > 9) Payload (size=512) ns3::EthernetTrailer (fcs=0)
+ 1.09011 /NodeList/0/DeviceList/0/$ns3::CsmaNetDevice/TxQueue/Enqueue ns3::EthernetHeader ( length/type=0x800, source=00:00:00:00:00:01, destination=ff:ff:ff:ff:ff:ff) ns3::Ipv4Header (tos 0x0 DSCP Default ECN Not-ECT ttl 64 id 10 protocol 17 offset (bytes) 0 flags [none] length: 540 10.1.0.1 > 255.255.255.255) ns3::UdpHeader (length: 520 49153 > 9) Payload (size=512) ns3::EthernetTrailer (fcs=0)
- 1.09011 /NodeList/0/DeviceList/0/$ns3::CsmaNetDevice/TxQueue/Dequeue ns3::EthernetHeader ( length/type=0x800, source=00:00:00:00:00:01, destination=ff:ff:ff:ff:ff:ff) ns3::Ipv4Header (tos 0x0 DSCP Default ECN Not-ECT ttl 64 id 10 protocol 17 offset (bytes) 0 flags [none] length: 540 10.1.0.1 > 255.255.255.255) ns3::UdpHeader (length: 520 49153 > 9) Payload (size=512) ns3::EthernetTrailer (fcs=0)
+ 1.09011 /NodeList/0/DeviceList/1/$ns3::CsmaNetDevice/TxQueue/Enqueue ns3::EthernetHeader ( length/type=0x800, source=00:00:00:00:00:03, destination=ff:ff:ff:ff:ff:ff) ns3::Ipv4Header (tos 0x0 DSCP Default ECN Not-ECT ttl 64 id 10 protocol 17 offset (bytes) 0 flags [none] length: 540 192.168.1.1 > 255.255.255.255) ns3::UdpHeader (length: 520 49153 > 9) Payload (size=512) ns3::EthernetTrailer (fcs=0)
- 1.09011 /NodeList/0/DeviceList/1/$ns3::CsmaNetDevice/TxQueue/Dequeue ns3::EthernetHeader ( length/type=0x800, source=00:00:00:00:00:03, destination=ff:ff:ff:ff:ff:ff) ns3::Ipv4Header (tos 0x0 DSCP Default ECN Not-ECT ttl 64 id 10 protocol 17 offset (bytes) 0 flags [none] length: 540 192.168.1.1 > 255.255.255.255) ns3::UdpHeader (length: 520 49153 > 9) Payload (size=512) ns3::EthernetTrailer (fcs=0)
r 1.093 /NodeList/1/DeviceList/0/$ns3::CsmaNetDevice/MacRx ns3::EthernetHeader ( length/type=0x800, source=00:00:00:00:00:01, destination=ff:ff:ff:ff:ff:ff) ns3::Ipv4Header (tos 0x0 DSCP Default ECN Not-ECT ttl 64 id 10 protocol 17 offset (bytes) 0 flags [none] length: 540 10.1.0.1 > 255.255.255.255) ns3::UdpHeader (length: 520 49153 > 9) Payload (size=512) ns3::EthernetTrailer (fcs=0)
r 1.093 /NodeList/2/DeviceList/0/$ns3::CsmaNetDevice/MacRx ns3::EthernetHeader ( length/type=0x800, source=00:00:00:00:00:03, destination=ff:ff:ff:ff:ff:ff) ns3::Ipv4Header (tos 0x0 DSCP Default ECN Not-ECT ttl 64 id 10 protocol 17 offset (bytes) 0 flags [none] length: 540 192.168.1.1 > 255.255.255.255) ns3::UdpHeader (length: 520 49153 > 9) Payload (size=512) ns3::EthernetTrailer (fcs=0)
+ 1.0983 /NodeList/0/DeviceList/0/$ns3::CsmaNetDevice/TxQueue/Enqueue ns3::EthernetHeader ( length/type=0x800, source=00:00:00:00:00:01, destination=ff:ff:ff:ff:ff:ff) ns3::Ipv4Header (tos 0x0 DSCP Default ECN Not-ECT ttl 64 id 11 protocol 17 offset (bytes) 0 flags [none] length: 540 10.1.0.1 > 255.255.255.255) ns3::UdpHeader (length: 520 49153 > 9) Payload (size=512) ns3::EthernetTrailer (fcs=0)
- 1.0983 /NodeList/0/DeviceList/0/$ns3::CsmaNetDevice/TxQueue/Dequeue ns3::EthernetHeader ( length/type=0x800, source=00:00:00:00:00:01, destination=ff:ff:ff:ff:ff:ff) ns3::Ipv4Header (tos 0x0 DSCP Default ECN Not-ECT ttl 64 id 11 protocol 17 offset (bytes) 0 flags [none] length: 540 10.1.0.1 > 255.255.255.255) ns3::UdpHeader (length: 520 49153 > 9) Payload (size=512) ns3::EthernetTrailer (fcs=0)
+ 1.0983 /NodeList/0/DeviceList/1/$ns3::CsmaNetDevice/TxQueue/Enqueue ns3::EthernetHeader ( length/type=0x800, source=00:00:00:00:00:03, destination=ff:ff:ff:ff:ff:ff) ns3::Ipv4Header (tos 0x0 DSCP Default ECN Not-ECT ttl 64 id 11 protocol 17 offset (bytes) 0 flags [none] length: 540 192.168.1.1 > 255.255.255.255) ns3::UdpHeader (length: 520 49153 > 9) Payload (size=512) ns3::EthernetTrailer (fcs=0)
- 1.0983 /NodeList/0/DeviceList/1/$ns3::CsmaNetDevice/TxQueue/Dequeue ns3::EthernetHeader ( length/type=0x800, source=00:00:00:00:00:03, destination=ff:ff:ff:ff:ff:ff) ns3::Ipv4Header (tos 0x0 DSCP Default ECN Not-ECT ttl 64 id 11 protocol 17 offset (bytes) 0 flags [none] length: 540 192.168.1.1 > 255.255.255.255) ns3::UdpHeader (length: 520 49153 > 9) Payload (size=512) ns3::EthernetTrailer (fcs=0)
r 1.1012 /NodeList/1/DeviceList/0/$ns3::CsmaNetDevice/MacRx ns3::EthernetHeader ( length/type=0x800, source=00:00:00:00:00:01, destination=ff:ff:ff:ff:ff:ff) ns3::Ipv4Header (tos 0x0 DSCP Default ECN Not-ECT ttl 64 id 11 protocol 17 offset (bytes) 0 flags [none] length: 540 10.1.0.1 > 255.255.255.255) ns3::UdpHeader (length: 520 49153 > 9) Payload (size=512) ns3::EthernetTrailer (fcs=0)
r 1.1012 /NodeList/2/DeviceList/0/$ns3::CsmaNetDevice/MacRx ns3::EthernetHeader ( length/type=0x800, source=00:00:00:00:00:03, destination=ff:ff:ff:ff:ff:ff) ns3::Ipv4Header (tos 0x0 DSCP Default ECN Not-ECT ttl 64 id 11 protocol 17 offset (bytes) 0 flags [none] length: 540 192.168.1.1 > 255.255.255.255) ns3::UdpHeader (length: 520 49153 > 9) Payload (size=512) ns3::EthernetTrailer (fcs=0)
+ 1.1065 /NodeList/0/DeviceList/0/$ns3::CsmaNetDevice/TxQueue/Enqueue ns3::EthernetHeader ( length/type=0x800, source=00:00:00:00:00:01, destination=ff:ff:ff:ff:ff:ff) ns3::Ipv4Header (tos 0x0 DSCP Default ECN Not-ECT ttl 64 id 12 protocol 17 offset (bytes) 0 flags [none] length: 540 10.1.0.1 > 255.255.255.255) ns3::UdpHeader (length: 520 49153 > 9) Payload (size=512) ns3::EthernetTrailer (fcs=0)
- 1.1065 /NodeList/0/DeviceList/0/$ns3::CsmaNetDevice/TxQueue/Dequeue ns3::EthernetHeader ( length/type=0x800, source=00:00:00:00:00:01, destination=ff:ff:ff:ff:ff:ff) ns3::Ipv4Header (tos 0x0 DSCP Default ECN Not-ECT ttl 64 id 12 protocol 17 offset (bytes) 0 flags [none] length: 540 10.1.0.1 > 255.255.255.255) ns3::UdpHeader (length: 520 49153 > 9) Payload (size=512) ns3::EthernetTrailer (fcs=0)
+ 1.1065 /NodeList/0/DeviceList/1/$ns3::CsmaNetDevice/TxQueue/Enqueue ns3::EthernetHeader ( length/type=0x800, source=00:00:00:00:00:03, destination=ff:ff:ff:ff:ff:ff) ns3::Ipv4Header (tos 0x0 DSCP Default ECN Not-ECT ttl 64 id 12 protocol 17 offset (bytes) 0 flags [none] length: 540 192.168.1.1 > 255.255.255.255) ns3::UdpHeader (length: 520 49153 > 9) Payload (size=512) ns3::EthernetTrailer (fcs=0)